; npt.mdp - NPT Equilibration (Constant Pressure/Temp)
; ------------------------------------------------
define      = -DPOSRES  ; Position restraints on protein heavy atoms

; Run Control
integrator  = md
nsteps      = 500000    ; 1 ns
dt          = 0.002

; Output Control
nstxout     = 0
nstvout     = 0
nstenergy   = 5000
nstlog      = 5000
nstxout-compressed = 5000
compressed-x-grps  = System

; Center of Mass (COMM) Removal
comm-mode   = Linear
nstcomm     = 100

; Bond Constraints
continuation         = yes      ; Continue from NVT
constraint_algorithm = lincs
constraints          = h-bonds
lincs_iter           = 1
lincs_order          = 4

; Neighbor Searching
cutoff-scheme = Verlet
nstlist       = 20
rlist         = 1.2
pbc           = xyz

; Electrostatics
coulombtype     = PME
rcoulomb        = 1.2
pme_order       = 4
fourierspacing  = 0.12

; Van der Waals
vdwtype         = cutoff
vdw-modifier    = force-switch
rvdw-switch     = 1.0
rvdw            = 1.2
DispCorr        = no

; Temperature Coupling
tcoupl      = V-rescale
tc-grps     = Protein Non-Protein
tau_t       = 0.5     0.5
ref_t       = 310     310

; Pressure Coupling
pcoupl           = C-rescale    ; Modern barostat (or Berendsen)
pcoupltype       = isotropic    ; Uniform box scaling
tau_p            = 10.0         ; Time constant (ps)
ref_p            = 1.0          ; Pressure (bar)
compressibility  = 4.5e-5       ; Compressibility of water
refcoord_scaling = com          ; Scale restraints with box size

; Velocity Generation
gen_vel     = no        ; Velocities read from NVT checkpoint